MODEL 1
REMARK VINA RESULT:    -7.339      0.000      0.000
REMARK INTER + INTRA:         -12.727
REMARK INTER:                 -10.771
REMARK INTRA:                  -1.956
REMARK UNBOUND:                -1.956
REMARK SMILES COc1cc2ncnc(Nc3ccc(F)c(Cl)c3)c2cc1OCCCN1CCOCC1
REMARK SMILES IDX 22 1 21 2 3 3 4 4 5 5 20 6 6 7 19 8 7 9 9 10 8 11 2 12 1 13
REMARK SMILES IDX 10 14 11 16 12 17 18 18 13 19 16 20 14 21 17 22 15 23 23 24
REMARK SMILES IDX 24 25 25 26 26 27 27 28 31 29 28 30 30 31 29 32
REMARK H PARENT 10 15
ROOT
ATOM      1  O   UNL     1      25.537   3.812  51.366  1.00  0.00           O
ENDROOT
BRANCH   1   2
ATOM      2  C   UNL     1      25.054   3.774  50.074  1.00  0.00           C
ATOM      3  C   UNL     1      24.776   5.072  49.465  1.00  0.00           C
ATOM      4  C   UNL     1      23.778   5.245  48.579  1.00  0.00           C
ATOM      5  C   UNL     1      22.877   4.108  48.240  1.00  0.00           C
ATOM      6  C   UNL     1      24.456   2.672  49.599  1.00  0.00           C
ATOM      7  N   UNL     1      21.874   4.261  47.424  1.00  0.00           N
ATOM      8  C   UNL     1      23.217   2.805  48.884  1.00  0.00           C
ATOM      9  C   UNL     1      20.968   3.235  47.503  1.00  0.00           C
ATOM     10  C   UNL     1      22.211   1.910  48.787  1.00  0.00           C
ATOM     11  N   UNL     1      21.353   2.014  47.712  1.00  0.00           N
BRANCH   3  12
ATOM     12  O   UNL     1      25.804   5.994  49.561  1.00  0.00           O
ATOM     13  C   UNL     1      25.712   6.950  48.505  1.00  0.00           C
ENDBRANCH   3  12
BRANCH  10  14
ATOM     14  N   UNL     1      22.078   0.861  49.694  1.00  0.00           N
ATOM     15  H   UNL     1      21.490   0.152  49.254  1.00  0.00           H
BRANCH  14  16
ATOM     16  C   UNL     1      21.689   1.060  51.008  1.00  0.00           C
ATOM     17  C   UNL     1      20.575   1.720  51.387  1.00  0.00           C
ATOM     18  C   UNL     1      22.473   0.374  52.048  1.00  0.00           C
ATOM     19  C   UNL     1      20.046   1.578  52.733  1.00  0.00           C
ATOM     20  C   UNL     1      21.932   0.154  53.260  1.00  0.00           C
ATOM     21  C   UNL     1      20.729   0.864  53.644  1.00  0.00           C
ATOM     22  Cl  UNL     1      22.477  -1.150  54.243  1.00  0.00           C
ATOM     23  F   UNL     1      20.418   0.969  54.952  1.00  0.00           F
ENDBRANCH  14  16
ENDBRANCH  10  14
ENDBRANCH   1   2
BRANCH   1  24
ATOM     24  C   UNL     1      24.503   3.509  52.307  1.00  0.00           C
BRANCH  24  25
ATOM     25  C   UNL     1      25.106   2.651  53.414  1.00  0.00           C
BRANCH  25  26
ATOM     26  C   UNL     1      25.894   1.475  52.833  1.00  0.00           C
BRANCH  26  27
ATOM     27  N   UNL     1      25.698   0.296  53.690  1.00  0.00           N
ATOM     28  C   UNL     1      26.350   0.451  55.001  1.00  0.00           C
ATOM     29  C   UNL     1      26.173  -0.941  53.043  1.00  0.00           C
ATOM     30  C   UNL     1      27.883   0.273  54.997  1.00  0.00           C
ATOM     31  C   UNL     1      27.687  -1.209  53.172  1.00  0.00           C
ATOM     32  O   UNL     1      28.404  -0.101  53.716  1.00  0.00           O
ENDBRANCH  26  27
ENDBRANCH  25  26
ENDBRANCH  24  25
ENDBRANCH   1  24
TORSDOF 8
ENDMDL
MODEL 2
REMARK VINA RESULT:    -6.896      3.013      7.310
REMARK INTER + INTRA:         -12.077
REMARK INTER:                  -9.873
REMARK INTRA:                  -2.204
REMARK UNBOUND:                -1.956
REMARK SMILES COc1cc2ncnc(Nc3ccc(F)c(Cl)c3)c2cc1OCCCN1CCOCC1
REMARK SMILES IDX 22 1 21 2 3 3 4 4 5 5 20 6 6 7 19 8 7 9 9 10 8 11 2 12 1 13
REMARK SMILES IDX 10 14 11 16 12 17 18 18 13 19 16 20 14 21 17 22 15 23 23 24
REMARK SMILES IDX 24 25 25 26 26 27 27 28 31 29 28 30 30 31 29 32
REMARK H PARENT 10 15
ROOT
ATOM      1  O   UNL     1      20.830   2.664  51.171  1.00  0.00           O
ENDROOT
BRANCH   1   2
ATOM      2  C   UNL     1      21.464   1.480  51.484  1.00  0.00           C
ATOM      3  C   UNL     1      20.907   0.745  52.615  1.00  0.00           C
ATOM      4  C   UNL     1      21.676   0.006  53.436  1.00  0.00           C
ATOM      5  C   UNL     1      23.153  -0.029  53.241  1.00  0.00           C
ATOM      6  C   UNL     1      22.731   1.261  51.105  1.00  0.00           C
ATOM      7  N   UNL     1      23.926  -0.695  54.050  1.00  0.00           N
ATOM      8  C   UNL     1      23.663   0.732  52.062  1.00  0.00           C
ATOM      9  C   UNL     1      25.244  -0.336  53.936  1.00  0.00           C
ATOM     10  C   UNL     1      24.999   0.917  52.114  1.00  0.00           C
ATOM     11  N   UNL     1      25.757  -0.019  52.788  1.00  0.00           N
BRANCH   3  12
ATOM     12  O   UNL     1      19.537   0.552  52.569  1.00  0.00           O
ATOM     13  C   UNL     1      19.165  -0.564  53.377  1.00  0.00           C
ENDBRANCH   3  12
BRANCH  10  14
ATOM     14  N   UNL     1      25.616   1.971  51.445  1.00  0.00           N
ATOM     15  H   UNL     1      26.619   1.898  51.623  1.00  0.00           H
BRANCH  14  16
ATOM     16  C   UNL     1      25.199   3.284  51.583  1.00  0.00           C
ATOM     17  C   UNL     1      24.966   3.896  52.762  1.00  0.00           C
ATOM     18  C   UNL     1      25.152   4.101  50.359  1.00  0.00           C
ATOM     19  C   UNL     1      24.888   5.345  52.848  1.00  0.00           C
ATOM     20  C   UNL     1      25.187   5.444  50.448  1.00  0.00           C
ATOM     21  C   UNL     1      24.946   6.081  51.726  1.00  0.00           C
ATOM     22  Cl  UNL     1      25.786   6.395  49.144  1.00  0.00           C
ATOM     23  F   UNL     1      24.579   7.379  51.754  1.00  0.00           F
ENDBRANCH  14  16
ENDBRANCH  10  14
ENDBRANCH   1   2
BRANCH   1  24
ATOM     24  C   UNL     1      21.484   3.774  51.794  1.00  0.00           C
BRANCH  24  25
ATOM     25  C   UNL     1      21.276   5.002  50.913  1.00  0.00           C
BRANCH  25  26
ATOM     26  C   UNL     1      20.242   4.727  49.820  1.00  0.00           C
BRANCH  26  27
ATOM     27  N   UNL     1      20.808   5.111  48.517  1.00  0.00           N
ATOM     28  C   UNL     1      19.943   4.702  47.398  1.00  0.00           C
ATOM     29  C   UNL     1      22.164   4.565  48.323  1.00  0.00           C
ATOM     30  C   UNL     1      19.991   3.199  47.047  1.00  0.00           C
ATOM     31  C   UNL     1      22.219   3.109  47.817  1.00  0.00           C
ATOM     32  O   UNL     1      20.943   2.468  47.827  1.00  0.00           O
ENDBRANCH  26  27
ENDBRANCH  25  26
ENDBRANCH  24  25
ENDBRANCH   1  24
TORSDOF 8
ENDMDL
MODEL 3
REMARK VINA RESULT:    -6.836      3.256      7.576
REMARK INTER + INTRA:         -11.989
REMARK INTER:                  -9.977
REMARK INTRA:                  -2.012
REMARK UNBOUND:                -1.956
REMARK SMILES COc1cc2ncnc(Nc3ccc(F)c(Cl)c3)c2cc1OCCCN1CCOCC1
REMARK SMILES IDX 22 1 21 2 3 3 4 4 5 5 20 6 6 7 19 8 7 9 9 10 8 11 2 12 1 13
REMARK SMILES IDX 10 14 11 16 12 17 18 18 13 19 16 20 14 21 17 22 15 23 23 24
REMARK SMILES IDX 24 25 25 26 26 27 27 28 31 29 28 30 30 31 29 32
REMARK H PARENT 10 15
ROOT
ATOM      1  O   UNL     1      20.664   2.720  51.130  1.00  0.00           O
ENDROOT
BRANCH   1   2
ATOM      2  C   UNL     1      21.333   1.548  51.417  1.00  0.00           C
ATOM      3  C   UNL     1      20.830   0.798  52.564  1.00  0.00           C
ATOM      4  C   UNL     1      21.643   0.074  53.356  1.00  0.00           C
ATOM      5  C   UNL     1      23.112   0.070  53.110  1.00  0.00           C
ATOM      6  C   UNL     1      22.591   1.357  50.994  1.00  0.00           C
ATOM      7  N   UNL     1      23.927  -0.581  53.889  1.00  0.00           N
ATOM      8  C   UNL     1      23.566   0.845  51.917  1.00  0.00           C
ATOM      9  C   UNL     1      25.232  -0.193  53.732  1.00  0.00           C
ATOM     10  C   UNL     1      24.899   1.058  51.923  1.00  0.00           C
ATOM     11  N   UNL     1      25.699   0.137  52.568  1.00  0.00           N
BRANCH   3  12
ATOM     12  O   UNL     1      19.464   0.576  52.565  1.00  0.00           O
ATOM     13  C   UNL     1      19.141  -0.532  53.403  1.00  0.00           C
ENDBRANCH   3  12
BRANCH  10  14
ATOM     14  N   UNL     1      25.470   2.127  51.237  1.00  0.00           N
ATOM     15  H   UNL     1      26.483   2.002  51.268  1.00  0.00           H
BRANCH  14  16
ATOM     16  C   UNL     1      25.141   3.444  51.508  1.00  0.00           C
ATOM     17  C   UNL     1      24.912   3.940  52.741  1.00  0.00           C
ATOM     18  C   UNL     1      25.194   4.391  50.382  1.00  0.00           C
ATOM     19  C   UNL     1      24.934   5.373  52.985  1.00  0.00           C
ATOM     20  C   UNL     1      25.320   5.709  50.619  1.00  0.00           C
ATOM     21  C   UNL     1      25.081   6.220  51.953  1.00  0.00           C
ATOM     22  Cl  UNL     1      26.029   6.750  49.445  1.00  0.00           C
ATOM     23  F   UNL     1      24.806   7.531  52.115  1.00  0.00           F
ENDBRANCH  14  16
ENDBRANCH  10  14
ENDBRANCH   1   2
BRANCH   1  24
ATOM     24  C   UNL     1      20.853   3.684  52.169  1.00  0.00           C
BRANCH  24  25
ATOM     25  C   UNL     1      21.480   4.930  51.551  1.00  0.00           C
BRANCH  25  26
ATOM     26  C   UNL     1      20.790   5.299  50.236  1.00  0.00           C
BRANCH  26  27
ATOM     27  N   UNL     1      20.344   6.699  50.304  1.00  0.00           N
ATOM     28  C   UNL     1      19.900   7.202  48.994  1.00  0.00           C
ATOM     29  C   UNL     1      21.389   7.585  50.849  1.00  0.00           C
ATOM     30  C   UNL     1      21.035   7.546  48.005  1.00  0.00           C
ATOM     31  C   UNL     1      22.441   8.064  49.827  1.00  0.00           C
ATOM     32  O   UNL     1      22.342   7.394  48.571  1.00  0.00           O
ENDBRANCH  26  27
ENDBRANCH  25  26
ENDBRANCH  24  25
ENDBRANCH   1  24
TORSDOF 8
ENDMDL
MODEL 4
REMARK VINA RESULT:    -6.804      4.831      6.566
REMARK INTER + INTRA:         -11.943
REMARK INTER:                 -10.772
REMARK INTRA:                  -1.171
REMARK UNBOUND:                -1.956
REMARK SMILES COc1cc2ncnc(Nc3ccc(F)c(Cl)c3)c2cc1OCCCN1CCOCC1
REMARK SMILES IDX 22 1 21 2 3 3 4 4 5 5 20 6 6 7 19 8 7 9 9 10 8 11 2 12 1 13
REMARK SMILES IDX 10 14 11 16 12 17 18 18 13 19 16 20 14 21 17 22 15 23 23 24
REMARK SMILES IDX 24 25 25 26 26 27 27 28 31 29 28 30 30 31 29 32
REMARK H PARENT 10 15
ROOT
ATOM      1  O   UNL     1      27.946   6.803  47.858  1.00  0.00           O
ENDROOT
BRANCH   1   2
ATOM      2  C   UNL     1      27.002   7.189  48.786  1.00  0.00           C
ATOM      3  C   UNL     1      27.459   8.141  49.794  1.00  0.00           C
ATOM      4  C   UNL     1      26.977   8.137  51.051  1.00  0.00           C
ATOM      5  C   UNL     1      25.992   7.099  51.467  1.00  0.00           C
ATOM      6  C   UNL     1      25.929   6.423  49.030  1.00  0.00           C
ATOM      7  N   UNL     1      25.548   7.041  52.690  1.00  0.00           N
ATOM      8  C   UNL     1      25.554   6.161  50.392  1.00  0.00           C
ATOM      9  C   UNL     1      24.944   5.844  52.976  1.00  0.00           C
ATOM     10  C   UNL     1      24.917   5.079  50.887  1.00  0.00           C
ATOM     11  N   UNL     1      24.244   5.216  52.083  1.00  0.00           N
BRANCH   3  12
ATOM     12  O   UNL     1      28.114   9.253  49.293  1.00  0.00           O
ATOM     13  C   UNL     1      29.267   9.546  50.080  1.00  0.00           C
ENDBRANCH   3  12
BRANCH  10  14
ATOM     14  N   UNL     1      24.865   3.877  50.184  1.00  0.00           N
ATOM     15  H   UNL     1      24.075   3.936  49.540  1.00  0.00           H
BRANCH  14  16
ATOM     16  C   UNL     1      24.878   2.646  50.817  1.00  0.00           C
ATOM     17  C   UNL     1      25.968   2.079  51.372  1.00  0.00           C
ATOM     18  C   UNL     1      23.577   1.989  51.023  1.00  0.00           C
ATOM     19  C   UNL     1      25.840   0.984  52.319  1.00  0.00           C
ATOM     20  C   UNL     1      23.444   1.049  51.977  1.00  0.00           C
ATOM     21  C   UNL     1      24.628   0.460  52.569  1.00  0.00           C
ATOM     22  Cl  UNL     1      21.913   0.740  52.700  1.00  0.00           C
ATOM     23  F   UNL     1      24.527  -0.728  53.199  1.00  0.00           F
ENDBRANCH  14  16
ENDBRANCH  10  14
ENDBRANCH   1   2
BRANCH   1  24
ATOM     24  C   UNL     1      29.046   6.142  48.491  1.00  0.00           C
BRANCH  24  25
ATOM     25  C   UNL     1      30.337   6.676  47.878  1.00  0.00           C
BRANCH  25  26
ATOM     26  C   UNL     1      31.559   6.201  48.665  1.00  0.00           C
BRANCH  26  27
ATOM     27  N   UNL     1      32.747   6.281  47.802  1.00  0.00           N
ATOM     28  C   UNL     1      32.587   5.496  46.567  1.00  0.00           C
ATOM     29  C   UNL     1      33.971   5.856  48.507  1.00  0.00           C
ATOM     30  C   UNL     1      32.736   3.968  46.738  1.00  0.00           C
ATOM     31  C   UNL     1      34.210   4.332  48.543  1.00  0.00           C
ATOM     32  O   UNL     1      33.092   3.581  48.070  1.00  0.00           O
ENDBRANCH  26  27
ENDBRANCH  25  26
ENDBRANCH  24  25
ENDBRANCH   1  24
TORSDOF 8
ENDMDL
MODEL 5
REMARK VINA RESULT:    -6.799      3.091      6.485
REMARK INTER + INTRA:         -11.936
REMARK INTER:                 -10.642
REMARK INTRA:                  -1.294
REMARK UNBOUND:                -1.956
REMARK SMILES COc1cc2ncnc(Nc3ccc(F)c(Cl)c3)c2cc1OCCCN1CCOCC1
REMARK SMILES IDX 22 1 21 2 3 3 4 4 5 5 20 6 6 7 19 8 7 9 9 10 8 11 2 12 1 13
REMARK SMILES IDX 10 14 11 16 12 17 18 18 13 19 16 20 14 21 17 22 15 23 23 24
REMARK SMILES IDX 24 25 25 26 26 27 27 28 31 29 28 30 30 31 29 32
REMARK H PARENT 10 15
ROOT
ATOM      1  O   UNL     1      23.478   3.198  50.329  1.00  0.00           O
ENDROOT
BRANCH   1   2
ATOM      2  C   UNL     1      22.495   2.386  50.855  1.00  0.00           C
ATOM      3  C   UNL     1      21.433   3.072  51.585  1.00  0.00           C
ATOM      4  C   UNL     1      20.814   2.510  52.640  1.00  0.00           C
ATOM      5  C   UNL     1      21.250   1.174  53.134  1.00  0.00           C
ATOM      6  C   UNL     1      22.732   1.087  51.085  1.00  0.00           C
ATOM      7  N   UNL     1      20.703   0.629  54.183  1.00  0.00           N
ATOM      8  C   UNL     1      22.332   0.517  52.342  1.00  0.00           C
ATOM      9  C   UNL     1      21.448  -0.402  54.692  1.00  0.00           C
ATOM     10  C   UNL     1      22.888  -0.522  53.000  1.00  0.00           C
ATOM     11  N   UNL     1      22.108  -1.202  53.912  1.00  0.00           N
BRANCH   3  12
ATOM     12  O   UNL     1      20.858   4.139  50.916  1.00  0.00           O
ATOM     13  C   UNL     1      19.492   4.286  51.297  1.00  0.00           C
ENDBRANCH   3  12
BRANCH  10  14
ATOM     14  N   UNL     1      24.182  -0.955  52.720  1.00  0.00           N
ATOM     15  H   UNL     1      24.191  -1.970  52.826  1.00  0.00           H
BRANCH  14  16
ATOM     16  C   UNL     1      25.297  -0.399  53.322  1.00  0.00           C
ATOM     17  C   UNL     1      25.276   0.321  54.463  1.00  0.00           C
ATOM     18  C   UNL     1      26.608  -0.748  52.751  1.00  0.00           C
ATOM     19  C   UNL     1      26.494   0.557  55.219  1.00  0.00           C
ATOM     20  C   UNL     1      27.720  -0.625  53.498  1.00  0.00           C
ATOM     21  C   UNL     1      27.673   0.143  54.726  1.00  0.00           C
ATOM     22  Cl  UNL     1      29.110  -1.587  53.172  1.00  0.00           C
ATOM     23  F   UNL     1      28.824   0.608  55.254  1.00  0.00           F
ENDBRANCH  14  16
ENDBRANCH  10  14
ENDBRANCH   1   2
BRANCH   1  24
ATOM     24  C   UNL     1      24.174   3.897  51.366  1.00  0.00           C
BRANCH  24  25
ATOM     25  C   UNL     1      25.155   4.863  50.710  1.00  0.00           C
BRANCH  25  26
ATOM     26  C   UNL     1      24.447   6.137  50.245  1.00  0.00           C
BRANCH  26  27
ATOM     27  N   UNL     1      24.504   7.138  51.322  1.00  0.00           N
ATOM     28  C   UNL     1      24.036   8.459  50.873  1.00  0.00           C
ATOM     29  C   UNL     1      25.859   7.258  51.893  1.00  0.00           C
ATOM     30  C   UNL     1      25.036   9.248  50.001  1.00  0.00           C
ATOM     31  C   UNL     1      26.821   8.175  51.110  1.00  0.00           C
ATOM     32  O   UNL     1      26.296   8.584  49.847  1.00  0.00           O
ENDBRANCH  26  27
ENDBRANCH  25  26
ENDBRANCH  24  25
ENDBRANCH   1  24
TORSDOF 8
ENDMDL
MODEL 6
REMARK VINA RESULT:    -6.696      2.520      6.094
REMARK INTER + INTRA:         -11.784
REMARK INTER:                  -9.619
REMARK INTRA:                  -2.165
REMARK UNBOUND:                -1.956
REMARK SMILES COc1cc2ncnc(Nc3ccc(F)c(Cl)c3)c2cc1OCCCN1CCOCC1
REMARK SMILES IDX 22 1 21 2 3 3 4 4 5 5 20 6 6 7 19 8 7 9 9 10 8 11 2 12 1 13
REMARK SMILES IDX 10 14 11 16 12 17 18 18 13 19 16 20 14 21 17 22 15 23 23 24
REMARK SMILES IDX 24 25 25 26 26 27 27 28 31 29 28 30 30 31 29 32
REMARK H PARENT 10 15
ROOT
ATOM      1  O   UNL     1      26.114   1.963  51.432  1.00  0.00           O
ENDROOT
BRANCH   1   2
ATOM      2  C   UNL     1      25.399   1.476  52.506  1.00  0.00           C
ATOM      3  C   UNL     1      25.676   0.091  52.874  1.00  0.00           C
ATOM      4  C   UNL     1      24.727  -0.716  53.384  1.00  0.00           C
ATOM      5  C   UNL     1      23.330  -0.222  53.531  1.00  0.00           C
ATOM      6  C   UNL     1      24.241   2.045  52.872  1.00  0.00           C
ATOM      7  N   UNL     1      22.382  -0.996  53.975  1.00  0.00           N
ATOM      8  C   UNL     1      23.109   1.205  53.150  1.00  0.00           C
ATOM      9  C   UNL     1      21.130  -0.502  53.714  1.00  0.00           C
ATOM     10  C   UNL     1      21.800   1.500  53.011  1.00  0.00           C
ATOM     11  N   UNL     1      20.890   0.772  53.751  1.00  0.00           N
BRANCH   3  12
ATOM     12  O   UNL     1      27.018  -0.218  53.017  1.00  0.00           O
ATOM     13  C   UNL     1      27.503   0.250  54.274  1.00  0.00           C
ENDBRANCH   3  12
BRANCH  10  14
ATOM     14  N   UNL     1      21.370   2.556  52.210  1.00  0.00           N
ATOM     15  H   UNL     1      20.762   3.143  52.783  1.00  0.00           H
BRANCH  14  16
ATOM     16  C   UNL     1      20.808   2.358  50.960  1.00  0.00           C
ATOM     17  C   UNL     1      19.599   2.820  50.580  1.00  0.00           C
ATOM     18  C   UNL     1      21.660   1.729  49.938  1.00  0.00           C
ATOM     19  C   UNL     1      19.236   2.892  49.175  1.00  0.00           C
ATOM     20  C   UNL     1      21.373   1.892  48.633  1.00  0.00           C
ATOM     21  C   UNL     1      20.073   2.400  48.246  1.00  0.00           C
ATOM     22  Cl  UNL     1      22.610   1.779  47.440  1.00  0.00           C
ATOM     23  F   UNL     1      19.633   2.188  46.989  1.00  0.00           F
ENDBRANCH  14  16
ENDBRANCH  10  14
ENDBRANCH   1   2
BRANCH   1  24
ATOM     24  C   UNL     1      25.245   2.278  50.340  1.00  0.00           C
BRANCH  24  25
ATOM     25  C   UNL     1      25.526   3.714  49.908  1.00  0.00           C
BRANCH  25  26
ATOM     26  C   UNL     1      24.230   4.515  49.780  1.00  0.00           C
BRANCH  26  27
ATOM     27  N   UNL     1      23.791   4.935  51.120  1.00  0.00           N
ATOM     28  C   UNL     1      22.618   5.823  51.065  1.00  0.00           C
ATOM     29  C   UNL     1      24.876   5.591  51.875  1.00  0.00           C
ATOM     30  C   UNL     1      22.915   7.276  50.637  1.00  0.00           C
ATOM     31  C   UNL     1      25.075   7.090  51.567  1.00  0.00           C
ATOM     32  O   UNL     1      24.311   7.534  50.446  1.00  0.00           O
ENDBRANCH  26  27
ENDBRANCH  25  26
ENDBRANCH  24  25
ENDBRANCH   1  24
TORSDOF 8
ENDMDL
MODEL 7
REMARK VINA RESULT:    -6.422      1.622      2.470
REMARK INTER + INTRA:         -11.382
REMARK INTER:                  -9.891
REMARK INTRA:                  -1.491
REMARK UNBOUND:                -1.956
REMARK SMILES COc1cc2ncnc(Nc3ccc(F)c(Cl)c3)c2cc1OCCCN1CCOCC1
REMARK SMILES IDX 22 1 21 2 3 3 4 4 5 5 20 6 6 7 19 8 7 9 9 10 8 11 2 12 1 13
REMARK SMILES IDX 10 14 11 16 12 17 18 18 13 19 16 20 14 21 17 22 15 23 23 24
REMARK SMILES IDX 24 25 25 26 26 27 27 28 31 29 28 30 30 31 29 32
REMARK H PARENT 10 15
ROOT
ATOM      1  O   UNL     1      23.672   4.408  51.535  1.00  0.00           O
ENDROOT
BRANCH   1   2
ATOM      2  C   UNL     1      23.910   4.699  50.207  1.00  0.00           C
ATOM      3  C   UNL     1      23.570   6.054  49.787  1.00  0.00           C
ATOM      4  C   UNL     1      23.124   6.327  48.546  1.00  0.00           C
ATOM      5  C   UNL     1      22.902   5.220  47.575  1.00  0.00           C
ATOM      6  C   UNL     1      23.991   3.718  49.296  1.00  0.00           C
ATOM      7  N   UNL     1      22.424   5.449  46.385  1.00  0.00           N
ATOM      8  C   UNL     1      23.277   3.857  48.057  1.00  0.00           C
ATOM      9  C   UNL     1      21.963   4.313  45.773  1.00  0.00           C
ATOM     10  C   UNL     1      22.778   2.882  47.269  1.00  0.00           C
ATOM     11  N   UNL     1      22.559   3.172  45.939  1.00  0.00           N
BRANCH   3  12
ATOM     12  O   UNL     1      24.079   7.060  50.590  1.00  0.00           O
ATOM     13  C   UNL     1      25.466   7.256  50.320  1.00  0.00           C
ENDBRANCH   3  12
BRANCH  10  14
ATOM     14  N   UNL     1      22.559   1.593  47.753  1.00  0.00           N
ATOM     15  H   UNL     1      22.396   0.990  46.946  1.00  0.00           H
BRANCH  14  16
ATOM     16  C   UNL     1      21.638   1.321  48.750  1.00  0.00           C
ATOM     17  C   UNL     1      21.953   0.884  49.987  1.00  0.00           C
ATOM     18  C   UNL     1      20.236   1.677  48.479  1.00  0.00           C
ATOM     19  C   UNL     1      20.992   0.968  51.074  1.00  0.00           C
ATOM     20  C   UNL     1      19.380   1.856  49.501  1.00  0.00           C
ATOM     21  C   UNL     1      19.741   1.390  50.824  1.00  0.00           C
ATOM     22  Cl  UNL     1      18.000   2.870  49.326  1.00  0.00           C
ATOM     23  F   UNL     1      18.770   1.193  51.739  1.00  0.00           F
ENDBRANCH  14  16
ENDBRANCH  10  14
ENDBRANCH   1   2
BRANCH   1  24
ATOM     24  C   UNL     1      24.886   4.056  52.206  1.00  0.00           C
BRANCH  24  25
ATOM     25  C   UNL     1      24.596   2.868  53.117  1.00  0.00           C
BRANCH  25  26
ATOM     26  C   UNL     1      25.497   1.679  52.776  1.00  0.00           C
BRANCH  26  27
ATOM     27  N   UNL     1      25.303   0.625  53.784  1.00  0.00           N
ATOM     28  C   UNL     1      26.295   0.710  54.869  1.00  0.00           C
ATOM     29  C   UNL     1      25.334  -0.722  53.186  1.00  0.00           C
ATOM     30  C   UNL     1      27.705   0.195  54.509  1.00  0.00           C
ATOM     31  C   UNL     1      26.743  -1.312  52.970  1.00  0.00           C
ATOM     32  O   UNL     1      27.784  -0.360  53.192  1.00  0.00           O
ENDBRANCH  26  27
ENDBRANCH  25  26
ENDBRANCH  24  25
ENDBRANCH   1  24
TORSDOF 8
ENDMDL
MODEL 8
REMARK VINA RESULT:    -6.393      8.258     11.337
REMARK INTER + INTRA:         -11.339
REMARK INTER:                  -9.172
REMARK INTRA:                  -2.167
REMARK UNBOUND:                -1.956
REMARK SMILES COc1cc2ncnc(Nc3ccc(F)c(Cl)c3)c2cc1OCCCN1CCOCC1
REMARK SMILES IDX 22 1 21 2 3 3 4 4 5 5 20 6 6 7 19 8 7 9 9 10 8 11 2 12 1 13
REMARK SMILES IDX 10 14 11 16 12 17 18 18 13 19 16 20 14 21 17 22 15 23 23 24
REMARK SMILES IDX 24 25 25 26 26 27 27 28 31 29 28 30 30 31 29 32
REMARK H PARENT 10 15
ROOT
ATOM      1  O   UNL     1      26.562   7.710  47.242  1.00  0.00           O
ENDROOT
BRANCH   1   2
ATOM      2  C   UNL     1      27.261   7.378  48.384  1.00  0.00           C
ATOM      3  C   UNL     1      26.689   7.859  49.638  1.00  0.00           C
ATOM      4  C   UNL     1      27.457   8.206  50.687  1.00  0.00           C
ATOM      5  C   UNL     1      28.942   8.167  50.568  1.00  0.00           C
ATOM      6  C   UNL     1      28.563   7.065  48.321  1.00  0.00           C
ATOM      7  N   UNL     1      29.709   8.545  51.549  1.00  0.00           N
ATOM      8  C   UNL     1      29.469   7.657  49.267  1.00  0.00           C
ATOM      9  C   UNL     1      31.000   8.775  51.152  1.00  0.00           C
ATOM     10  C   UNL     1      30.781   7.929  49.106  1.00  0.00           C
ATOM     11  N   UNL     1      31.562   8.046  50.237  1.00  0.00           N
BRANCH   3  12
ATOM     12  O   UNL     1      25.343   7.583  49.809  1.00  0.00           O
ATOM     13  C   UNL     1      24.628   8.777  50.121  1.00  0.00           C
ENDBRANCH   3  12
BRANCH  10  14
ATOM     14  N   UNL     1      31.359   8.014  47.841  1.00  0.00           N
ATOM     15  H   UNL     1      30.599   8.104  47.165  1.00  0.00           H
BRANCH  14  16
ATOM     16  C   UNL     1      32.296   7.101  47.390  1.00  0.00           C
ATOM     17  C   UNL     1      33.632   7.274  47.458  1.00  0.00           C
ATOM     18  C   UNL     1      31.792   5.791  46.945  1.00  0.00           C
ATOM     19  C   UNL     1      34.539   6.149  47.309  1.00  0.00           C
ATOM     20  C   UNL     1      32.618   4.730  46.912  1.00  0.00           C
ATOM     21  C   UNL     1      34.049   4.937  46.998  1.00  0.00           C
ATOM     22  Cl  UNL     1      32.000   3.130  47.054  1.00  0.00           C
ATOM     23  F   UNL     1      34.881   3.966  46.567  1.00  0.00           F
ENDBRANCH  14  16
ENDBRANCH  10  14
ENDBRANCH   1   2
BRANCH   1  24
ATOM     24  C   UNL     1      27.365   8.502  46.362  1.00  0.00           C
BRANCH  24  25
ATOM     25  C   UNL     1      27.031   9.970  46.609  1.00  0.00           C
BRANCH  25  26
ATOM     26  C   UNL     1      28.284  10.766  46.978  1.00  0.00           C
BRANCH  26  27
ATOM     27  N   UNL     1      28.364  10.884  48.442  1.00  0.00           N
ATOM     28  C   UNL     1      27.254  11.679  48.993  1.00  0.00           C
ATOM     29  C   UNL     1      29.651  11.455  48.880  1.00  0.00           C
ATOM     30  C   UNL     1      27.383  13.206  48.800  1.00  0.00           C
ATOM     31  C   UNL     1      29.732  12.995  48.841  1.00  0.00           C
ATOM     32  O   UNL     1      28.616  13.595  48.184  1.00  0.00           O
ENDBRANCH  26  27
ENDBRANCH  25  26
ENDBRANCH  24  25
ENDBRANCH   1  24
TORSDOF 8
ENDMDL
MODEL 9
REMARK VINA RESULT:    -6.306      5.113      6.841
REMARK INTER + INTRA:         -11.211
REMARK INTER:                 -10.119
REMARK INTRA:                  -1.092
REMARK UNBOUND:                -1.956
REMARK SMILES COc1cc2ncnc(Nc3ccc(F)c(Cl)c3)c2cc1OCCCN1CCOCC1
REMARK SMILES IDX 22 1 21 2 3 3 4 4 5 5 20 6 6 7 19 8 7 9 9 10 8 11 2 12 1 13
REMARK SMILES IDX 10 14 11 16 12 17 18 18 13 19 16 20 14 21 17 22 15 23 23 24
REMARK SMILES IDX 24 25 25 26 26 27 27 28 31 29 28 30 30 31 29 32
REMARK H PARENT 10 15
ROOT
ATOM      1  O   UNL     1      29.611   6.694  49.254  1.00  0.00           O
ENDROOT
BRANCH   1   2
ATOM      2  C   UNL     1      28.413   7.377  49.264  1.00  0.00           C
ATOM      3  C   UNL     1      28.337   8.508  50.183  1.00  0.00           C
ATOM      4  C   UNL     1      27.190   8.857  50.793  1.00  0.00           C
ATOM      5  C   UNL     1      25.959   8.043  50.588  1.00  0.00           C
ATOM      6  C   UNL     1      27.287   6.788  48.836  1.00  0.00           C
ATOM      7  N   UNL     1      24.849   8.328  51.204  1.00  0.00           N
ATOM      8  C   UNL     1      26.094   6.906  49.629  1.00  0.00           C
ATOM      9  C   UNL     1      23.948   7.295  51.176  1.00  0.00           C
ATOM     10  C   UNL     1      25.064   6.039  49.718  1.00  0.00           C
ATOM     11  N   UNL     1      23.843   6.525  50.138  1.00  0.00           N
BRANCH   3  12
ATOM     12  O   UNL     1      29.391   9.401  50.098  1.00  0.00           O
ATOM     13  C   UNL     1      30.077   9.480  51.346  1.00  0.00           C
ENDBRANCH   3  12
BRANCH  10  14
ATOM     14  N   UNL     1      25.194   4.708  49.325  1.00  0.00           N
ATOM     15  H   UNL     1      25.290   4.700  48.309  1.00  0.00           H
BRANCH  14  16
ATOM     16  C   UNL     1      24.309   3.725  49.732  1.00  0.00           C
ATOM     17  C   UNL     1      23.347   3.186  48.954  1.00  0.00           C
ATOM     18  C   UNL     1      24.538   3.128  51.058  1.00  0.00           C
ATOM     19  C   UNL     1      22.710   1.932  49.316  1.00  0.00           C
ATOM     20  C   UNL     1      24.029   1.916  51.345  1.00  0.00           C
ATOM     21  C   UNL     1      23.006   1.350  50.490  1.00  0.00           C
ATOM     22  Cl  UNL     1      24.766   0.912  52.535  1.00  0.00           C
ATOM     23  F   UNL     1      22.219   0.366  50.971  1.00  0.00           F
ENDBRANCH  14  16
ENDBRANCH  10  14
ENDBRANCH   1   2
BRANCH   1  24
ATOM     24  C   UNL     1      29.876   6.143  47.961  1.00  0.00           C
BRANCH  24  25
ATOM     25  C   UNL     1      30.375   4.713  48.147  1.00  0.00           C
BRANCH  25  26
ATOM     26  C   UNL     1      31.882   4.686  48.408  1.00  0.00           C
BRANCH  26  27
ATOM     27  N   UNL     1      32.524   5.754  47.625  1.00  0.00           N
ATOM     28  C   UNL     1      33.203   5.230  46.429  1.00  0.00           C
ATOM     29  C   UNL     1      33.476   6.535  48.436  1.00  0.00           C
ATOM     30  C   UNL     1      34.552   4.528  46.696  1.00  0.00           C
ATOM     31  C   UNL     1      34.882   5.915  48.575  1.00  0.00           C
ATOM     32  O   UNL     1      34.955   4.582  48.069  1.00  0.00           O
ENDBRANCH  26  27
ENDBRANCH  25  26
ENDBRANCH  24  25
ENDBRANCH   1  24
TORSDOF 8
ENDMDL
MODEL 10
REMARK VINA RESULT:    -6.181      3.342      5.637
REMARK INTER + INTRA:         -11.028
REMARK INTER:                  -9.792
REMARK INTRA:                  -1.236
REMARK UNBOUND:                -1.956
REMARK SMILES COc1cc2ncnc(Nc3ccc(F)c(Cl)c3)c2cc1OCCCN1CCOCC1
REMARK SMILES IDX 22 1 21 2 3 3 4 4 5 5 20 6 6 7 19 8 7 9 9 10 8 11 2 12 1 13
REMARK SMILES IDX 10 14 11 16 12 17 18 18 13 19 16 20 14 21 17 22 15 23 23 24
REMARK SMILES IDX 24 25 25 26 26 27 27 28 31 29 28 30 30 31 29 32
REMARK H PARENT 10 15
ROOT
ATOM      1  O   UNL     1      26.760   7.012  50.122  1.00  0.00           O
ENDROOT
BRANCH   1   2
ATOM      2  C   UNL     1      26.041   6.225  49.247  1.00  0.00           C
ATOM      3  C   UNL     1      25.383   6.932  48.153  1.00  0.00           C
ATOM      4  C   UNL     1      24.211   6.519  47.637  1.00  0.00           C
ATOM      5  C   UNL     1      23.512   5.342  48.226  1.00  0.00           C
ATOM      6  C   UNL     1      25.597   5.016  49.622  1.00  0.00           C
ATOM      7  N   UNL     1      22.353   4.951  47.779  1.00  0.00           N
ATOM      8  C   UNL     1      24.237   4.652  49.334  1.00  0.00           C
ATOM      9  C   UNL     1      21.713   4.102  48.644  1.00  0.00           C
ATOM     10  C   UNL     1      23.438   3.807  50.018  1.00  0.00           C
ATOM     11  N   UNL     1      22.375   3.237  49.348  1.00  0.00           N
BRANCH   3  12
ATOM     12  O   UNL     1      26.197   7.802  47.447  1.00  0.00           O
ATOM     13  C   UNL     1      25.419   8.588  46.546  1.00  0.00           C
ENDBRANCH   3  12
BRANCH  10  14
ATOM     14  N   UNL     1      23.712   3.449  51.336  1.00  0.00           N
ATOM     15  H   UNL     1      24.229   4.221  51.759  1.00  0.00           H
BRANCH  14  16
ATOM     16  C   UNL     1      24.297   2.239  51.671  1.00  0.00           C
ATOM     17  C   UNL     1      25.626   2.028  51.761  1.00  0.00           C
ATOM     18  C   UNL     1      23.395   1.158  52.100  1.00  0.00           C
ATOM     19  C   UNL     1      26.151   0.866  52.457  1.00  0.00           C
ATOM     20  C   UNL     1      23.874   0.139  52.836  1.00  0.00           C
ATOM     21  C   UNL     1      25.305  -0.064  52.930  1.00  0.00           C
ATOM     22  Cl  UNL     1      22.838  -0.749  53.888  1.00  0.00           C
ATOM     23  F   UNL     1      25.774  -1.273  53.304  1.00  0.00           F
ENDBRANCH  14  16
ENDBRANCH  10  14
ENDBRANCH   1   2
BRANCH   1  24
ATOM     24  C   UNL     1      26.024   8.187  50.475  1.00  0.00           C
BRANCH  24  25
ATOM     25  C   UNL     1      27.016   9.331  50.657  1.00  0.00           C
BRANCH  25  26
ATOM     26  C   UNL     1      28.301   8.845  51.329  1.00  0.00           C
BRANCH  26  27
ATOM     27  N   UNL     1      29.457   9.449  50.648  1.00  0.00           N
ATOM     28  C   UNL     1      29.364   9.323  49.184  1.00  0.00           C
ATOM     29  C   UNL     1      30.733   8.877  51.116  1.00  0.00           C
ATOM     30  C   UNL     1      29.686   7.921  48.625  1.00  0.00           C
ATOM     31  C   UNL     1      31.143   7.550  50.442  1.00  0.00           C
ATOM     32  O   UNL     1      30.107   6.994  49.632  1.00  0.00           O
ENDBRANCH  26  27
ENDBRANCH  25  26
ENDBRANCH  24  25
ENDBRANCH   1  24
TORSDOF 8
ENDMDL
