REMARK SMILES C#Cc1cccc(Nc2ncnc3cc(OCCOC)c(OCCOC)cc23)c1
REMARK SMILES IDX 21 1 27 2 28 3 9 4 10 5 11 6 12 7 13 8 14 9 15 10 22 11
REMARK SMILES IDX 23 12 24 13 25 14 26 15 16 16 17 17 18 18 19 19 20 20 8 21
REMARK SMILES IDX 7 23 6 24 29 25 5 26 3 27 4 28 2 29 1 30
REMARK H PARENT 8 22
ROOT
ATOM      1  C   UNL     1      -1.037   0.228  -0.273  1.00  0.00           C
ATOM      2  C   UNL     1       0.264  -0.060  -0.110  1.00  0.00           C
ATOM      3  C   UNL     1       1.238   0.489  -1.026  1.00  0.00           C
ATOM      4  C   UNL     1       2.391  -0.107  -1.400  1.00  0.00           C
ATOM      5  N   UNL     1       2.688  -0.148  -2.745  1.00  0.00           N
ATOM      6  C   UNL     1       2.583   1.020  -3.298  1.00  0.00           C
ATOM      7  N   UNL     1       1.488   1.822  -3.090  1.00  0.00           N
ATOM      8  C   UNL     1       0.789   1.488  -2.049  1.00  0.00           C
ATOM      9  C   UNL     1      -0.559   2.068  -1.815  1.00  0.00           C
ATOM     10  C   UNL     1      -1.447   1.368  -1.088  1.00  0.00           C
ENDROOT
BRANCH   1  11
ATOM     11  O   UNL     1      -2.018  -0.389   0.479  1.00  0.00           O
BRANCH  11  12
ATOM     12  C   UNL     1      -2.454  -1.592  -0.177  1.00  0.00           C
BRANCH  12  13
ATOM     13  C   UNL     1      -3.579  -2.209   0.647  1.00  0.00           C
BRANCH  13  14
ATOM     14  O   UNL     1      -3.850  -3.521   0.145  1.00  0.00           O
ATOM     15  C   UNL     1      -4.932  -4.136   0.836  1.00  0.00           C
ENDBRANCH  13  14
ENDBRANCH  12  13
ENDBRANCH  11  12
ENDBRANCH   1  11
BRANCH  10  16
ATOM     16  O   UNL     1      -2.805   1.506  -1.302  1.00  0.00           O
BRANCH  16  17
ATOM     17  C   UNL     1      -3.382   2.415  -0.353  1.00  0.00           C
BRANCH  17  18
ATOM     18  C   UNL     1      -4.829   1.996  -0.116  1.00  0.00           C
BRANCH  18  19
ATOM     19  O   UNL     1      -5.428   2.852   0.862  1.00  0.00           O
ATOM     20  C   UNL     1      -5.587   2.206   2.119  1.00  0.00           C
ENDBRANCH  18  19
ENDBRANCH  17  18
ENDBRANCH  16  17
ENDBRANCH  10  16
BRANCH   4  21
ATOM     21  N   UNL     1       3.203  -0.749  -0.471  1.00  0.00           N
ATOM     22  H   UNL     1       3.475  -1.646  -0.873  1.00  0.00           H
BRANCH  21  23
ATOM     23  C   UNL     1       4.310  -0.135   0.090  1.00  0.00           C
ATOM     24  C   UNL     1       4.341   0.319   1.360  1.00  0.00           C
ATOM     25  C   UNL     1       5.583  -0.214  -0.626  1.00  0.00           C
ATOM     26  C   UNL     1       5.593   0.336   2.102  1.00  0.00           C
ATOM     27  C   UNL     1       6.738  -0.304   0.062  1.00  0.00           C
ATOM     28  C   UNL     1       6.752   0.113   1.458  1.00  0.00           C
ATOM     29  C   UNL     1       7.850  -1.011  -0.470  1.00  0.00           C
ATOM     30  C   UNL     1       8.777  -1.627  -0.921  1.00  0.00           C
ENDBRANCH  21  23
ENDBRANCH   4  21
TORSDOF 10
