REMARK SMILES COc1cc2ncnc(Nc3ccc(F)c(Cl)c3)c2cc1OCCCN1CCOCC1
REMARK SMILES IDX 22 1 21 2 3 3 4 4 5 5 20 6 6 7 19 8 7 9 9 10 8 11 2 12 1 13
REMARK SMILES IDX 10 14 11 16 12 17 18 18 13 19 16 20 14 21 17 22 15 23 23 24
REMARK SMILES IDX 24 25 25 26 26 27 27 28 31 29 28 30 30 31 29 32
REMARK H PARENT 10 15
ROOT
ATOM      1  O   UNL     1       0.081  -0.190   0.033  1.00  0.00           O
ENDROOT
BRANCH   1   2
ATOM      2  C   UNL     1       0.842  -1.121  -0.643  1.00  0.00           C
ATOM      3  C   UNL     1       0.655  -2.509  -0.232  1.00  0.00           C
ATOM      4  C   UNL     1       1.659  -3.405  -0.264  1.00  0.00           C
ATOM      5  C   UNL     1       3.027  -2.976  -0.669  1.00  0.00           C
ATOM      6  C   UNL     1       1.970  -0.757  -1.270  1.00  0.00           C
ATOM      7  N   UNL     1       4.027  -3.810  -0.661  1.00  0.00           N
ATOM      8  C   UNL     1       3.155  -1.549  -1.089  1.00  0.00           C
ATOM      9  C   UNL     1       5.242  -3.178  -0.715  1.00  0.00           C
ATOM     10  C   UNL     1       4.442  -1.147  -1.145  1.00  0.00           C
ATOM     11  N   UNL     1       5.406  -2.097  -1.413  1.00  0.00           N
BRANCH   3  12
ATOM     12  O   UNL     1      -0.663  -2.928  -0.172  1.00  0.00           O
ATOM     13  C   UNL     1      -1.081  -3.058   1.186  1.00  0.00           C
ENDBRANCH   3  12
BRANCH  10  14
ATOM     14  N   UNL     1       4.794   0.195  -1.017  1.00  0.00           N
ATOM     15  H   UNL     1       5.596   0.358  -1.627  1.00  0.00           H
BRANCH  14  16
ATOM     16  C   UNL     1       4.997   0.795   0.214  1.00  0.00           C
ATOM     17  C   UNL     1       6.090   0.617   0.984  1.00  0.00           C
ATOM     18  C   UNL     1       4.015   1.809   0.632  1.00  0.00           C
ATOM     19  C   UNL     1       6.399   1.538   2.065  1.00  0.00           C
ATOM     20  C   UNL     1       4.350   2.724   1.560  1.00  0.00           C
ATOM     21  C   UNL     1       5.534   2.520   2.369  1.00  0.00           C
ATOM     22  Cl  UNL     1       3.564   4.255   1.609  1.00  0.00           C
ATOM     23  F   UNL     1       5.654   3.184   3.537  1.00  0.00           F
ENDBRANCH  14  16
ENDBRANCH  10  14
ENDBRANCH   1   2
BRANCH   1  24
ATOM     24  C   UNL     1      -1.040   0.223  -0.754  1.00  0.00           C
BRANCH  24  25
ATOM     25  C   UNL     1      -2.202   0.512   0.191  1.00  0.00           C
BRANCH  25  26
ATOM     26  C   UNL     1      -3.492   0.777  -0.587  1.00  0.00           C
BRANCH  26  27
ATOM     27  N   UNL     1      -4.609   0.898   0.363  1.00  0.00           N
ATOM     28  C   UNL     1      -5.760   0.068  -0.029  1.00  0.00           C
ATOM     29  C   UNL     1      -5.040   2.298   0.532  1.00  0.00           C
ATOM     30  C   UNL     1      -6.606   0.628  -1.193  1.00  0.00           C
ATOM     31  C   UNL     1      -6.016   2.818  -0.544  1.00  0.00           C
ATOM     32  O   UNL     1      -6.168   1.916  -1.640  1.00  0.00           O
ENDBRANCH  26  27
ENDBRANCH  25  26
ENDBRANCH  24  25
ENDBRANCH   1  24
TORSDOF 8
