MODEL 1
REMARK VINA RESULT:      -6.2      0.000      0.000
REMARK SMILES C#Cc1cccc(Nc2ncnc3cc(OCCOC)c(OCCOC)cc23)c1
REMARK SMILES IDX 21 1 27 2 28 3 9 4 10 5 11 6 12 7 13 8 14 9 15 10 22 11
REMARK SMILES IDX 23 12 24 13 25 14 26 15 16 16 17 17 18 18 19 19 20 20 8 21
REMARK SMILES IDX 7 23 6 24 29 25 5 26 3 27 4 28 2 29 1 30
REMARK H PARENT 8 22
ROOT
ATOM      1  C   UNL     1      22.807   5.157  51.355  1.00  0.00           C
ATOM      2  C   UNL     1      22.306   3.960  51.699  1.00  0.00           C
ATOM      3  C   UNL     1      23.123   3.030  52.444  1.00  0.00           C
ATOM      4  C   UNL     1      23.065   1.683  52.356  1.00  0.00           C
ATOM      5  N   UNL     1      24.250   0.995  52.208  1.00  0.00           N
ATOM      6  C   UNL     1      25.128   1.352  53.093  1.00  0.00           C
ATOM      7  N   UNL     1      25.390   2.674  53.358  1.00  0.00           N
ATOM      8  C   UNL     1      24.462   3.481  52.945  1.00  0.00           C
ATOM      9  C   UNL     1      24.687   4.950  52.909  1.00  0.00           C
ATOM     10  C   UNL     1      23.984   5.690  52.034  1.00  0.00           C
ENDROOT
BRANCH   1  11
ATOM     11  O   UNL     1      22.124   6.017  50.517  1.00  0.00           O
BRANCH  11  12
ATOM     12  C   UNL     1      20.722   5.696  50.522  1.00  0.00           C
BRANCH  12  13
ATOM     13  C   UNL     1      19.951   6.898  49.988  1.00  0.00           C
BRANCH  13  14
ATOM     14  O   UNL     1      20.650   8.091  50.352  1.00  0.00           O
ATOM     15  C   UNL     1      19.921   9.260  49.991  1.00  0.00           C
ENDBRANCH  13  14
ENDBRANCH  12  13
ENDBRANCH  11  12
ENDBRANCH   1  11
BRANCH  10  16
ATOM     16  O   UNL     1      24.501   6.865  51.524  1.00  0.00           O
BRANCH  16  17
ATOM     17  C   UNL     1      25.770   7.167  52.121  1.00  0.00           C
BRANCH  17  18
ATOM     18  C   UNL     1      26.684   7.722  51.033  1.00  0.00           C
BRANCH  18  19
ATOM     19  O   UNL     1      27.650   8.604  51.614  1.00  0.00           O
ATOM     20  C   UNL     1      28.319   9.391  50.637  1.00  0.00           C
ENDBRANCH  18  19
ENDBRANCH  17  18
ENDBRANCH  16  17
ENDBRANCH  10  16
BRANCH   4  21
ATOM     21  N   UNL     1      21.844   1.018  52.312  1.00  0.00           N
ATOM     22  H   UNL     1      21.257   1.409  53.049  1.00  0.00           H
BRANCH  21  23
ATOM     23  C   UNL     1      21.109   0.902  51.144  1.00  0.00           C
ATOM     24  C   UNL     1      19.775   1.094  51.086  1.00  0.00           C
ATOM     25  C   UNL     1      21.833   0.828  49.875  1.00  0.00           C
ATOM     26  C   UNL     1      19.160   1.605  49.870  1.00  0.00           C
ATOM     27  C   UNL     1      21.311   1.394  48.769  1.00  0.00           C
ATOM     28  C   UNL     1      19.882   1.674  48.737  1.00  0.00           C
ATOM     29  C   UNL     1      22.153   1.931  47.758  1.00  0.00           C
ATOM     30  C   UNL     1      22.875   2.399  46.920  1.00  0.00           C
ENDBRANCH  21  23
ENDBRANCH   4  21
TORSDOF 10
ENDMDL
MODEL 2
REMARK VINA RESULT:      -6.2      2.881      5.453
REMARK SMILES C#Cc1cccc(Nc2ncnc3cc(OCCOC)c(OCCOC)cc23)c1
REMARK SMILES IDX 21 1 27 2 28 3 9 4 10 5 11 6 12 7 13 8 14 9 15 10 22 11
REMARK SMILES IDX 23 12 24 13 25 14 26 15 16 16 17 17 18 18 19 19 20 20 8 21
REMARK SMILES IDX 7 23 6 24 29 25 5 26 3 27 4 28 2 29 1 30
REMARK H PARENT 8 22
ROOT
ATOM      1  C   UNL     1      24.503   3.105  50.354  1.00  0.00           C
ATOM      2  C   UNL     1      23.403   2.343  50.245  1.00  0.00           C
ATOM      3  C   UNL     1      22.278   2.819  49.473  1.00  0.00           C
ATOM      4  C   UNL     1      20.979   2.545  49.722  1.00  0.00           C
ATOM      5  N   UNL     1      20.088   3.596  49.727  1.00  0.00           N
ATOM      6  C   UNL     1      20.199   4.328  48.663  1.00  0.00           C
ATOM      7  N   UNL     1      21.421   4.759  48.206  1.00  0.00           N
ATOM      8  C   UNL     1      22.422   4.088  48.688  1.00  0.00           C
ATOM      9  C   UNL     1      23.817   4.569  48.516  1.00  0.00           C
ATOM     10  C   UNL     1      24.745   4.196  49.415  1.00  0.00           C
ENDROOT
BRANCH   1  11
ATOM     11  O   UNL     1      25.541   2.765  51.200  1.00  0.00           O
BRANCH  11  12
ATOM     12  C   UNL     1      25.145   1.673  52.048  1.00  0.00           C
BRANCH  12  13
ATOM     13  C   UNL     1      26.240   0.613  52.012  1.00  0.00           C
BRANCH  13  14
ATOM     14  O   UNL     1      26.920   0.611  53.270  1.00  0.00           O
ATOM     15  C   UNL     1      26.013   0.741  54.359  1.00  0.00           C
ENDBRANCH  13  14
ENDBRANCH  12  13
ENDBRANCH  11  12
ENDBRANCH   1  11
BRANCH  10  16
ATOM     16  O   UNL     1      25.834   5.002  49.687  1.00  0.00           O
BRANCH  16  17
ATOM     17  C   UNL     1      25.453   6.386  49.707  1.00  0.00           C
BRANCH  17  18
ATOM     18  C   UNL     1      25.665   6.914  51.122  1.00  0.00           C
BRANCH  18  19
ATOM     19  O   UNL     1      24.575   6.513  51.958  1.00  0.00           O
ATOM     20  C   UNL     1      25.010   5.775  53.094  1.00  0.00           C
ENDBRANCH  18  19
ENDBRANCH  17  18
ENDBRANCH  16  17
ENDBRANCH  10  16
BRANCH   4  21
ATOM     21  N   UNL     1      20.568   1.261  50.063  1.00  0.00           N
ATOM     22  H   UNL     1      21.376   0.646  49.965  1.00  0.00           H
BRANCH  21  23
ATOM     23  C   UNL     1      19.916   0.987  51.254  1.00  0.00           C
ATOM     24  C   UNL     1      18.622   0.615  51.321  1.00  0.00           C
ATOM     25  C   UNL     1      20.722   0.838  52.466  1.00  0.00           C
ATOM     26  C   UNL     1      18.165  -0.258  52.393  1.00  0.00           C
ATOM     27  C   UNL     1      20.355  -0.047  53.413  1.00  0.00           C
ATOM     28  C   UNL     1      18.974  -0.511  53.437  1.00  0.00           C
ATOM     29  C   UNL     1      21.329  -0.704  54.214  1.00  0.00           C
ATOM     30  C   UNL     1      22.161  -1.267  54.871  1.00  0.00           C
ENDBRANCH  21  23
ENDBRANCH   4  21
TORSDOF 10
ENDMDL
MODEL 3
REMARK VINA RESULT:      -6.2      2.654      5.600
REMARK SMILES C#Cc1cccc(Nc2ncnc3cc(OCCOC)c(OCCOC)cc23)c1
REMARK SMILES IDX 21 1 27 2 28 3 9 4 10 5 11 6 12 7 13 8 14 9 15 10 22 11
REMARK SMILES IDX 23 12 24 13 25 14 26 15 16 16 17 17 18 18 19 19 20 20 8 21
REMARK SMILES IDX 7 23 6 24 29 25 5 26 3 27 4 28 2 29 1 30
REMARK H PARENT 8 22
ROOT
ATOM      1  C   UNL     1      20.642   4.586  51.125  1.00  0.00           C
ATOM      2  C   UNL     1      21.660   4.169  51.895  1.00  0.00           C
ATOM      3  C   UNL     1      22.879   4.944  51.949  1.00  0.00           C
ATOM      4  C   UNL     1      24.121   4.446  52.129  1.00  0.00           C
ATOM      5  N   UNL     1      25.116   4.874  51.277  1.00  0.00           N
ATOM      6  C   UNL     1      25.156   6.167  51.193  1.00  0.00           C
ATOM      7  N   UNL     1      24.021   6.913  50.991  1.00  0.00           N
ATOM      8  C   UNL     1      22.924   6.274  51.260  1.00  0.00           C
ATOM      9  C   UNL     1      21.602   6.822  50.858  1.00  0.00           C
ATOM     10  C   UNL     1      20.582   5.969  50.661  1.00  0.00           C
ENDROOT
BRANCH   1  11
ATOM     11  O   UNL     1      19.519   3.808  50.922  1.00  0.00           O
BRANCH  11  12
ATOM     12  C   UNL     1      19.817   2.749  49.996  1.00  0.00           C
BRANCH  12  13
ATOM     13  C   UNL     1      19.199   1.459  50.524  1.00  0.00           C
BRANCH  13  14
ATOM     14  O   UNL     1      19.397   1.400  51.940  1.00  0.00           O
ATOM     15  C   UNL     1      19.027   0.133  52.471  1.00  0.00           C
ENDBRANCH  13  14
ENDBRANCH  12  13
ENDBRANCH  11  12
ENDBRANCH   1  11
BRANCH  10  16
ATOM     16  O   UNL     1      19.569   6.268  49.771  1.00  0.00           O
BRANCH  16  17
ATOM     17  C   UNL     1      20.102   6.812  48.554  1.00  0.00           C
BRANCH  17  18
ATOM     18  C   UNL     1      20.412   5.652  47.614  1.00  0.00           C
BRANCH  18  19
ATOM     19  O   UNL     1      21.800   5.669  47.264  1.00  0.00           O
ATOM     20  C   UNL     1      22.519   4.596  47.860  1.00  0.00           C
ENDBRANCH  18  19
ENDBRANCH  17  18
ENDBRANCH  16  17
ENDBRANCH  10  16
BRANCH   4  21
ATOM     21  N   UNL     1      24.370   3.457  53.074  1.00  0.00           N
ATOM     22  H   UNL     1      23.633   3.516  53.778  1.00  0.00           H
BRANCH  21  23
ATOM     23  C   UNL     1      24.571   2.133  52.722  1.00  0.00           C
ATOM     24  C   UNL     1      25.793   1.597  52.522  1.00  0.00           C
ATOM     25  C   UNL     1      23.442   1.209  52.826  1.00  0.00           C
ATOM     26  C   UNL     1      26.031   0.189  52.803  1.00  0.00           C
ATOM     27  C   UNL     1      23.651  -0.072  53.189  1.00  0.00           C
ATOM     28  C   UNL     1      24.990  -0.627  53.046  1.00  0.00           C
ATOM     29  C   UNL     1      22.667  -0.792  53.919  1.00  0.00           C
ATOM     30  C   UNL     1      21.836  -1.385  54.551  1.00  0.00           C
ENDBRANCH  21  23
ENDBRANCH   4  21
TORSDOF 10
ENDMDL
MODEL 4
REMARK VINA RESULT:      -6.1      3.490      5.835
REMARK SMILES C#Cc1cccc(Nc2ncnc3cc(OCCOC)c(OCCOC)cc23)c1
REMARK SMILES IDX 21 1 27 2 28 3 9 4 10 5 11 6 12 7 13 8 14 9 15 10 22 11
REMARK SMILES IDX 23 12 24 13 25 14 26 15 16 16 17 17 18 18 19 19 20 20 8 21
REMARK SMILES IDX 7 23 6 24 29 25 5 26 3 27 4 28 2 29 1 30
REMARK H PARENT 8 22
ROOT
ATOM      1  C   UNL     1      26.818   6.746  49.045  1.00  0.00           C
ATOM      2  C   UNL     1      26.042   5.673  49.269  1.00  0.00           C
ATOM      3  C   UNL     1      25.272   5.591  50.489  1.00  0.00           C
ATOM      4  C   UNL     1      24.958   4.454  51.147  1.00  0.00           C
ATOM      5  N   UNL     1      25.172   4.416  52.508  1.00  0.00           N
ATOM      6  C   UNL     1      24.653   5.443  53.106  1.00  0.00           C
ATOM      7  N   UNL     1      24.842   6.721  52.643  1.00  0.00           N
ATOM      8  C   UNL     1      25.242   6.773  51.409  1.00  0.00           C
ATOM      9  C   UNL     1      25.745   8.042  50.822  1.00  0.00           C
ATOM     10  C   UNL     1      26.608   7.982  49.793  1.00  0.00           C
ENDROOT
BRANCH   1  11
ATOM     11  O   UNL     1      27.685   6.804  47.971  1.00  0.00           O
BRANCH  11  12
ATOM     12  C   UNL     1      28.945   6.209  48.326  1.00  0.00           C
BRANCH  12  13
ATOM     13  C   UNL     1      30.028   6.805  47.433  1.00  0.00           C
BRANCH  13  14
ATOM     14  O   UNL     1      31.139   5.905  47.394  1.00  0.00           O
ATOM     15  C   UNL     1      30.801   4.628  47.926  1.00  0.00           C
ENDBRANCH  13  14
ENDBRANCH  12  13
ENDBRANCH  11  12
ENDBRANCH   1  11
BRANCH  10  16
ATOM     16  O   UNL     1      27.536   8.984  49.585  1.00  0.00           O
BRANCH  16  17
ATOM     17  C   UNL     1      28.354   9.172  50.750  1.00  0.00           C
BRANCH  17  18
ATOM     18  C   UNL     1      29.785   9.427  50.287  1.00  0.00           C
BRANCH  18  19
ATOM     19  O   UNL     1      29.775  10.041  48.995  1.00  0.00           O
ATOM     20  C   UNL     1      29.909  11.455  49.069  1.00  0.00           C
ENDBRANCH  18  19
ENDBRANCH  17  18
ENDBRANCH  16  17
ENDBRANCH  10  16
BRANCH   4  21
ATOM     21  N   UNL     1      24.529   3.322  50.462  1.00  0.00           N
ATOM     22  H   UNL     1      24.996   3.320  49.555  1.00  0.00           H
BRANCH  21  23
ATOM     23  C   UNL     1      24.588   2.056  51.019  1.00  0.00           C
ATOM     24  C   UNL     1      25.728   1.501  51.480  1.00  0.00           C
ATOM     25  C   UNL     1      23.331   1.393  51.367  1.00  0.00           C
ATOM     26  C   UNL     1      25.689   0.554  52.584  1.00  0.00           C
ATOM     27  C   UNL     1      23.267   0.597  52.452  1.00  0.00           C
ATOM     28  C   UNL     1      24.508   0.061  52.997  1.00  0.00           C
ATOM     29  C   UNL     1      22.063   0.475  53.197  1.00  0.00           C
ATOM     30  C   UNL     1      21.046   0.395  53.831  1.00  0.00           C
ENDBRANCH  21  23
ENDBRANCH   4  21
TORSDOF 10
ENDMDL
MODEL 5
REMARK VINA RESULT:      -6.0      2.717      5.507
REMARK SMILES C#Cc1cccc(Nc2ncnc3cc(OCCOC)c(OCCOC)cc23)c1
REMARK SMILES IDX 21 1 27 2 28 3 9 4 10 5 11 6 12 7 13 8 14 9 15 10 22 11
REMARK SMILES IDX 23 12 24 13 25 14 26 15 16 16 17 17 18 18 19 19 20 20 8 21
REMARK SMILES IDX 7 23 6 24 29 25 5 26 3 27 4 28 2 29 1 30
REMARK H PARENT 8 22
ROOT
ATOM      1  C   UNL     1      25.433   6.366  49.826  1.00  0.00           C
ATOM      2  C   UNL     1      25.169   5.390  50.709  1.00  0.00           C
ATOM      3  C   UNL     1      23.896   4.708  50.660  1.00  0.00           C
ATOM      4  C   UNL     1      23.235   4.196  51.722  1.00  0.00           C
ATOM      5  N   UNL     1      21.895   4.491  51.850  1.00  0.00           N
ATOM      6  C   UNL     1      21.243   4.255  50.755  1.00  0.00           C
ATOM      7  N   UNL     1      21.698   4.689  49.534  1.00  0.00           N
ATOM      8  C   UNL     1      22.957   5.004  49.531  1.00  0.00           C
ATOM      9  C   UNL     1      23.559   5.733  48.384  1.00  0.00           C
ATOM     10  C   UNL     1      24.651   6.487  48.599  1.00  0.00           C
ENDROOT
BRANCH   1  11
ATOM     11  O   UNL     1      26.568   7.148  49.925  1.00  0.00           O
BRANCH  11  12
ATOM     12  C   UNL     1      26.598   7.809  51.201  1.00  0.00           C
BRANCH  12  13
ATOM     13  C   UNL     1      27.728   8.834  51.186  1.00  0.00           C
BRANCH  13  14
ATOM     14  O   UNL     1      28.943   8.172  50.825  1.00  0.00           O
ATOM     15  C   UNL     1      30.087   8.946  51.169  1.00  0.00           C
ENDBRANCH  13  14
ENDBRANCH  12  13
ENDBRANCH  11  12
ENDBRANCH   1  11
BRANCH  10  16
ATOM     16  O   UNL     1      24.911   7.597  47.819  1.00  0.00           O
BRANCH  16  17
ATOM     17  C   UNL     1      23.810   8.518  47.856  1.00  0.00           C
BRANCH  17  18
ATOM     18  C   UNL     1      24.375   9.933  47.803  1.00  0.00           C
BRANCH  18  19
ATOM     19  O   UNL     1      25.302  10.126  48.877  1.00  0.00           O
ATOM     20  C   UNL     1      25.867  11.431  48.873  1.00  0.00           C
ENDBRANCH  18  19
ENDBRANCH  17  18
ENDBRANCH  16  17
ENDBRANCH  10  16
BRANCH   4  21
ATOM     21  N   UNL     1      23.905   3.481  52.709  1.00  0.00           N
ATOM     22  H   UNL     1      23.367   3.576  53.571  1.00  0.00           H
BRANCH  21  23
ATOM     23  C   UNL     1      24.280   2.159  52.537  1.00  0.00           C
ATOM     24  C   UNL     1      25.566   1.755  52.481  1.00  0.00           C
ATOM     25  C   UNL     1      23.257   1.124  52.684  1.00  0.00           C
ATOM     26  C   UNL     1      25.938   0.428  52.949  1.00  0.00           C
ATOM     27  C   UNL     1      23.580  -0.071  53.215  1.00  0.00           C
ATOM     28  C   UNL     1      24.980  -0.473  53.226  1.00  0.00           C
ATOM     29  C   UNL     1      22.630  -0.815  53.965  1.00  0.00           C
ATOM     30  C   UNL     1      21.825  -1.427  54.614  1.00  0.00           C
ENDBRANCH  21  23
ENDBRANCH   4  21
TORSDOF 10
ENDMDL
MODEL 6
REMARK VINA RESULT:      -5.9      2.900      5.456
REMARK SMILES C#Cc1cccc(Nc2ncnc3cc(OCCOC)c(OCCOC)cc23)c1
REMARK SMILES IDX 21 1 27 2 28 3 9 4 10 5 11 6 12 7 13 8 14 9 15 10 22 11
REMARK SMILES IDX 23 12 24 13 25 14 26 15 16 16 17 17 18 18 19 19 20 20 8 21
REMARK SMILES IDX 7 23 6 24 29 25 5 26 3 27 4 28 2 29 1 30
REMARK H PARENT 8 22
ROOT
ATOM      1  C   UNL     1      24.417   1.907  51.921  1.00  0.00           C
ATOM      2  C   UNL     1      23.254   2.523  52.185  1.00  0.00           C
ATOM      3  C   UNL     1      22.187   1.789  52.827  1.00  0.00           C
ATOM      4  C   UNL     1      20.865   1.992  52.634  1.00  0.00           C
ATOM      5  N   UNL     1      20.073   0.890  52.393  1.00  0.00           N
ATOM      6  C   UNL     1      20.264  -0.043  53.273  1.00  0.00           C
ATOM      7  N   UNL     1      21.525  -0.450  53.633  1.00  0.00           N
ATOM      8  C   UNL     1      22.455   0.398  53.317  1.00  0.00           C
ATOM      9  C   UNL     1      23.891   0.021  53.389  1.00  0.00           C
ATOM     10  C   UNL     1      24.769   0.664  52.600  1.00  0.00           C
ENDROOT
BRANCH   1  11
ATOM     11  O   UNL     1      25.409   2.516  51.177  1.00  0.00           O
BRANCH  11  12
ATOM     12  C   UNL     1      24.848   3.079  49.979  1.00  0.00           C
BRANCH  12  13
ATOM     13  C   UNL     1      25.405   4.488  49.802  1.00  0.00           C
BRANCH  13  14
ATOM     14  O   UNL     1      24.501   5.419  50.405  1.00  0.00           O
ATOM     15  C   UNL     1      25.100   6.098  51.503  1.00  0.00           C
ENDBRANCH  13  14
ENDBRANCH  12  13
ENDBRANCH  11  12
ENDBRANCH   1  11
BRANCH  10  16
ATOM     16  O   UNL     1      25.923   0.039  52.167  1.00  0.00           O
BRANCH  16  17
ATOM     17  C   UNL     1      26.420  -0.864  53.166  1.00  0.00           C
BRANCH  17  18
ATOM     18  C   UNL     1      27.843  -0.442  53.518  1.00  0.00           C
BRANCH  18  19
ATOM     19  O   UNL     1      27.828   0.391  54.681  1.00  0.00           O
ATOM     20  C   UNL     1      26.797   0.029  55.591  1.00  0.00           C
ENDBRANCH  18  19
ENDBRANCH  17  18
ENDBRANCH  16  17
ENDBRANCH  10  16
BRANCH   4  21
ATOM     21  N   UNL     1      20.335   3.276  52.579  1.00  0.00           N
ATOM     22  H   UNL     1      20.912   3.870  53.175  1.00  0.00           H
BRANCH  21  23
ATOM     23  C   UNL     1      20.088   3.921  51.378  1.00  0.00           C
ATOM     24  C   UNL     1      18.891   3.898  50.758  1.00  0.00           C
ATOM     25  C   UNL     1      21.079   4.881  50.892  1.00  0.00           C
ATOM     26  C   UNL     1      18.468   5.025  49.940  1.00  0.00           C
ATOM     27  C   UNL     1      20.679   5.981  50.224  1.00  0.00           C
ATOM     28  C   UNL     1      19.353   5.986  49.620  1.00  0.00           C
ATOM     29  C   UNL     1      21.415   7.193  50.309  1.00  0.00           C
ATOM     30  C   UNL     1      22.035   8.218  50.402  1.00  0.00           C
ENDBRANCH  21  23
ENDBRANCH   4  21
TORSDOF 10
ENDMDL
MODEL 7
REMARK VINA RESULT:      -5.9      2.263      5.218
REMARK SMILES C#Cc1cccc(Nc2ncnc3cc(OCCOC)c(OCCOC)cc23)c1
REMARK SMILES IDX 21 1 27 2 28 3 9 4 10 5 11 6 12 7 13 8 14 9 15 10 22 11
REMARK SMILES IDX 23 12 24 13 25 14 26 15 16 16 17 17 18 18 19 19 20 20 8 21
REMARK SMILES IDX 7 23 6 24 29 25 5 26 3 27 4 28 2 29 1 30
REMARK H PARENT 8 22
ROOT
ATOM      1  C   UNL     1      22.871   5.814  51.180  1.00  0.00           C
ATOM      2  C   UNL     1      22.685   4.485  51.146  1.00  0.00           C
ATOM      3  C   UNL     1      21.348   3.953  51.008  1.00  0.00           C
ATOM      4  C   UNL     1      20.906   2.789  51.533  1.00  0.00           C
ATOM      5  N   UNL     1      19.709   2.805  52.215  1.00  0.00           N
ATOM      6  C   UNL     1      18.769   3.377  51.529  1.00  0.00           C
ATOM      7  N   UNL     1      18.963   4.586  50.907  1.00  0.00           N
ATOM      8  C   UNL     1      20.213   4.899  50.758  1.00  0.00           C
ATOM      9  C   UNL     1      20.614   6.270  50.348  1.00  0.00           C
ATOM     10  C   UNL     1      21.832   6.720  50.697  1.00  0.00           C
ENDROOT
BRANCH   1  11
ATOM     11  O   UNL     1      24.105   6.369  51.460  1.00  0.00           O
BRANCH  11  12
ATOM     12  C   UNL     1      25.090   5.859  50.545  1.00  0.00           C
BRANCH  12  13
ATOM     13  C   UNL     1      26.033   6.997  50.170  1.00  0.00           C
BRANCH  13  14
ATOM     14  O   UNL     1      26.395   7.705  51.360  1.00  0.00           O
ATOM     15  C   UNL     1      27.518   8.552  51.147  1.00  0.00           C
ENDBRANCH  13  14
ENDBRANCH  12  13
ENDBRANCH  11  12
ENDBRANCH   1  11
BRANCH  10  16
ATOM     16  O   UNL     1      22.062   8.068  50.893  1.00  0.00           O
BRANCH  16  17
ATOM     17  C   UNL     1      22.550   8.683  49.691  1.00  0.00           C
BRANCH  17  18
ATOM     18  C   UNL     1      21.496   9.672  49.205  1.00  0.00           C
BRANCH  18  19
ATOM     19  O   UNL     1      20.334   9.592  50.036  1.00  0.00           O
ATOM     20  C   UNL     1      19.378  10.598  49.726  1.00  0.00           C
ENDBRANCH  18  19
ENDBRANCH  17  18
ENDBRANCH  16  17
ENDBRANCH  10  16
BRANCH   4  21
ATOM     21  N   UNL     1      21.679   1.635  51.476  1.00  0.00           N
ATOM     22  H   UNL     1      22.432   1.805  50.809  1.00  0.00           H
BRANCH  21  23
ATOM     23  C   UNL     1      22.192   1.034  52.613  1.00  0.00           C
ATOM     24  C   UNL     1      21.462   0.241  53.425  1.00  0.00           C
ATOM     25  C   UNL     1      23.642   1.038  52.806  1.00  0.00           C
ATOM     26  C   UNL     1      22.100  -0.841  54.160  1.00  0.00           C
ATOM     27  C   UNL     1      24.246  -0.013  53.393  1.00  0.00           C
ATOM     28  C   UNL     1      23.441  -0.915  54.206  1.00  0.00           C
ATOM     29  C   UNL     1      25.572  -0.383  53.038  1.00  0.00           C
ATOM     30  C   UNL     1      26.685  -0.697  52.717  1.00  0.00           C
ENDBRANCH  21  23
ENDBRANCH   4  21
TORSDOF 10
ENDMDL
MODEL 8
REMARK VINA RESULT:      -5.9      3.550      6.723
REMARK SMILES C#Cc1cccc(Nc2ncnc3cc(OCCOC)c(OCCOC)cc23)c1
REMARK SMILES IDX 21 1 27 2 28 3 9 4 10 5 11 6 12 7 13 8 14 9 15 10 22 11
REMARK SMILES IDX 23 12 24 13 25 14 26 15 16 16 17 17 18 18 19 19 20 20 8 21
REMARK SMILES IDX 7 23 6 24 29 25 5 26 3 27 4 28 2 29 1 30
REMARK H PARENT 8 22
ROOT
ATOM      1  C   UNL     1      19.375   3.671  51.466  1.00  0.00           C
ATOM      2  C   UNL     1      20.585   3.585  52.041  1.00  0.00           C
ATOM      3  C   UNL     1      21.644   4.471  51.614  1.00  0.00           C
ATOM      4  C   UNL     1      22.962   4.174  51.598  1.00  0.00           C
ATOM      5  N   UNL     1      23.674   4.464  50.455  1.00  0.00           N
ATOM      6  C   UNL     1      23.481   5.685  50.063  1.00  0.00           C
ATOM      7  N   UNL     1      22.222   6.225  49.974  1.00  0.00           N
ATOM      8  C   UNL     1      21.325   5.567  50.643  1.00  0.00           C
ATOM      9  C   UNL     1      19.877   5.844  50.458  1.00  0.00           C
ATOM     10  C   UNL     1      18.993   4.866  50.720  1.00  0.00           C
ENDROOT
BRANCH   1  11
ATOM     11  O   UNL     1      18.378   2.751  51.729  1.00  0.00           O
BRANCH  11  12
ATOM     12  C   UNL     1      18.780   1.448  51.272  1.00  0.00           C
BRANCH  12  13
ATOM     13  C   UNL     1      17.558   0.742  50.696  1.00  0.00           C
BRANCH  13  14
ATOM     14  O   UNL     1      16.587   0.584  51.735  1.00  0.00           O
ATOM     15  C   UNL     1      15.815  -0.599  51.558  1.00  0.00           C
ENDBRANCH  13  14
ENDBRANCH  12  13
ENDBRANCH  11  12
ENDBRANCH   1  11
BRANCH  10  16
ATOM     16  O   UNL     1      17.782   4.808  50.057  1.00  0.00           O
BRANCH  16  17
ATOM     17  C   UNL     1      17.979   4.751  48.637  1.00  0.00           C
BRANCH  17  18
ATOM     18  C   UNL     1      17.296   3.491  48.115  1.00  0.00           C
BRANCH  18  19
ATOM     19  O   UNL     1      18.175   2.796  47.224  1.00  0.00           O
ATOM     20  C   UNL     1      19.434   2.512  47.822  1.00  0.00           C
ENDBRANCH  18  19
ENDBRANCH  17  18
ENDBRANCH  16  17
ENDBRANCH  10  16
BRANCH   4  21
ATOM     21  N   UNL     1      23.561   3.504  52.660  1.00  0.00           N
ATOM     22  H   UNL     1      22.920   3.553  53.452  1.00  0.00           H
BRANCH  21  23
ATOM     23  C   UNL     1      24.050   2.214  52.537  1.00  0.00           C
ATOM     24  C   UNL     1      25.366   1.916  52.557  1.00  0.00           C
ATOM     25  C   UNL     1      23.108   1.102  52.653  1.00  0.00           C
ATOM     26  C   UNL     1      25.819   0.633  53.073  1.00  0.00           C
ATOM     27  C   UNL     1      23.498  -0.053  53.227  1.00  0.00           C
ATOM     28  C   UNL     1      24.923  -0.339  53.320  1.00  0.00           C
ATOM     29  C   UNL     1      22.573  -0.859  53.944  1.00  0.00           C
ATOM     30  C   UNL     1      21.787  -1.523  54.564  1.00  0.00           C
ENDBRANCH  21  23
ENDBRANCH   4  21
TORSDOF 10
ENDMDL
MODEL 9
REMARK VINA RESULT:      -5.9      2.834      4.787
REMARK SMILES C#Cc1cccc(Nc2ncnc3cc(OCCOC)c(OCCOC)cc23)c1
REMARK SMILES IDX 21 1 27 2 28 3 9 4 10 5 11 6 12 7 13 8 14 9 15 10 22 11
REMARK SMILES IDX 23 12 24 13 25 14 26 15 16 16 17 17 18 18 19 19 20 20 8 21
REMARK SMILES IDX 7 23 6 24 29 25 5 26 3 27 4 28 2 29 1 30
REMARK H PARENT 8 22
ROOT
ATOM      1  C   UNL     1      21.032   5.662  50.792  1.00  0.00           C
ATOM      2  C   UNL     1      21.508   4.409  50.879  1.00  0.00           C
ATOM      3  C   UNL     1      22.926   4.171  50.730  1.00  0.00           C
ATOM      4  C   UNL     1      23.487   3.061  50.203  1.00  0.00           C
ATOM      5  N   UNL     1      24.472   3.226  49.254  1.00  0.00           N
ATOM      6  C   UNL     1      25.390   4.052  49.650  1.00  0.00           C
ATOM      7  N   UNL     1      25.077   5.267  50.208  1.00  0.00           N
ATOM      8  C   UNL     1      23.852   5.345  50.630  1.00  0.00           C
ATOM      9  C   UNL     1      23.260   6.651  51.021  1.00  0.00           C
ATOM     10  C   UNL     1      21.927   6.806  50.942  1.00  0.00           C
ENDROOT
BRANCH   1  11
ATOM     11  O   UNL     1      19.676   5.925  50.776  1.00  0.00           O
BRANCH  11  12
ATOM     12  C   UNL     1      19.005   4.987  49.918  1.00  0.00           C
BRANCH  12  13
ATOM     13  C   UNL     1      17.745   4.502  50.627  1.00  0.00           C
BRANCH  13  14
ATOM     14  O   UNL     1      17.952   3.155  51.063  1.00  0.00           O
ATOM     15  C   UNL     1      16.733   2.422  51.107  1.00  0.00           C
ENDBRANCH  13  14
ENDBRANCH  12  13
ENDBRANCH  11  12
ENDBRANCH   1  11
BRANCH  10  16
ATOM     16  O   UNL     1      21.370   8.049  50.708  1.00  0.00           O
BRANCH  16  17
ATOM     17  C   UNL     1      21.739   8.537  49.410  1.00  0.00           C
BRANCH  17  18
ATOM     18  C   UNL     1      20.480   8.598  48.551  1.00  0.00           C
BRANCH  18  19
ATOM     19  O   UNL     1      20.604   7.697  47.446  1.00  0.00           O
ATOM     20  C   UNL     1      21.923   7.182  47.314  1.00  0.00           C
ENDBRANCH  18  19
ENDBRANCH  17  18
ENDBRANCH  16  17
ENDBRANCH  10  16
BRANCH   4  21
ATOM     21  N   UNL     1      23.017   1.793  50.529  1.00  0.00           N
ATOM     22  H   UNL     1      23.375   1.146  49.828  1.00  0.00           H
BRANCH  21  23
ATOM     23  C   UNL     1      23.180   1.249  51.792  1.00  0.00           C
ATOM     24  C   UNL     1      22.183   0.648  52.474  1.00  0.00           C
ATOM     25  C   UNL     1      24.540   1.079  52.303  1.00  0.00           C
ATOM     26  C   UNL     1      22.478  -0.429  53.407  1.00  0.00           C
ATOM     27  C   UNL     1      24.839   0.022  53.083  1.00  0.00           C
ATOM     28  C   UNL     1      23.752  -0.676  53.758  1.00  0.00           C
ATOM     29  C   UNL     1      26.137  -0.556  53.061  1.00  0.00           C
ATOM     30  C   UNL     1      27.231  -1.048  53.021  1.00  0.00           C
ENDBRANCH  21  23
ENDBRANCH   4  21
TORSDOF 10
ENDMDL
MODEL 10
REMARK VINA RESULT:      -5.8      3.271      5.360
REMARK SMILES C#Cc1cccc(Nc2ncnc3cc(OCCOC)c(OCCOC)cc23)c1
REMARK SMILES IDX 21 1 27 2 28 3 9 4 10 5 11 6 12 7 13 8 14 9 15 10 22 11
REMARK SMILES IDX 23 12 24 13 25 14 26 15 16 16 17 17 18 18 19 19 20 20 8 21
REMARK SMILES IDX 7 23 6 24 29 25 5 26 3 27 4 28 2 29 1 30
REMARK H PARENT 8 22
ROOT
ATOM      1  C   UNL     1      23.236   1.265  52.148  1.00  0.00           C
ATOM      2  C   UNL     1      22.054   1.888  52.017  1.00  0.00           C
ATOM      3  C   UNL     1      20.865   1.288  52.578  1.00  0.00           C
ATOM      4  C   UNL     1      19.616   1.398  52.075  1.00  0.00           C
ATOM      5  N   UNL     1      18.872   0.246  51.938  1.00  0.00           N
ATOM      6  C   UNL     1      18.860  -0.452  53.031  1.00  0.00           C
ATOM      7  N   UNL     1      20.012  -0.724  53.727  1.00  0.00           N
ATOM      8  C   UNL     1      21.001   0.057  53.421  1.00  0.00           C
ATOM      9  C   UNL     1      22.384  -0.247  53.874  1.00  0.00           C
ATOM     10  C   UNL     1      23.418   0.224  53.155  1.00  0.00           C
ENDROOT
BRANCH   1  11
ATOM     11  O   UNL     1      24.372   1.718  51.504  1.00  0.00           O
BRANCH  11  12
ATOM     12  C   UNL     1      24.895   2.871  52.187  1.00  0.00           C
BRANCH  12  13
ATOM     13  C   UNL     1      25.184   3.953  51.152  1.00  0.00           C
BRANCH  13  14
ATOM     14  O   UNL     1      24.297   3.778  50.044  1.00  0.00           O
ATOM     15  C   UNL     1      24.353   4.880  49.145  1.00  0.00           C
ENDBRANCH  13  14
ENDBRANCH  12  13
ENDBRANCH  11  12
ENDBRANCH   1  11
BRANCH  10  16
ATOM     16  O   UNL     1      24.626  -0.446  53.127  1.00  0.00           O
BRANCH  16  17
ATOM     17  C   UNL     1      25.191  -0.538  54.443  1.00  0.00           C
BRANCH  17  18
ATOM     18  C   UNL     1      26.453   0.317  54.476  1.00  0.00           C
BRANCH  18  19
ATOM     19  O   UNL     1      27.548  -0.412  53.911  1.00  0.00           O
ATOM     20  C   UNL     1      28.800   0.212  54.166  1.00  0.00           C
ENDBRANCH  18  19
ENDBRANCH  17  18
ENDBRANCH  16  17
ENDBRANCH  10  16
BRANCH   4  21
ATOM     21  N   UNL     1      19.131   2.618  51.615  1.00  0.00           N
ATOM     22  H   UNL     1      19.616   3.353  52.130  1.00  0.00           H
BRANCH  21  23
ATOM     23  C   UNL     1      19.098   2.937  50.268  1.00  0.00           C
ATOM     24  C   UNL     1      18.531   4.064  49.787  1.00  0.00           C
ATOM     25  C   UNL     1      19.935   2.163  49.352  1.00  0.00           C
ATOM     26  C   UNL     1      19.047   4.684  48.576  1.00  0.00           C
ATOM     27  C   UNL     1      20.499   2.763  48.285  1.00  0.00           C
ATOM     28  C   UNL     1      19.935   4.022  47.814  1.00  0.00           C
ATOM     29  C   UNL     1      21.752   2.324  47.780  1.00  0.00           C
ATOM     30  C   UNL     1      22.821   1.956  47.373  1.00  0.00           C
ENDBRANCH  21  23
ENDBRANCH   4  21
TORSDOF 10
ENDMDL
